 Gaussian 16, Revision A.03,
 Gaussian 16:  ES64L-G16RevA.03 25-Dec-2016

 ---------------------------------------------------------
 #p pbepbe/SVP pop=full scf=xqc 6d 10f gfinput iop(3/33=1)
 ---------------------------------------------------------

 ------
 dsfdsf
 ------
 Symbolic Z-matrix:
 Charge =  2 Multiplicity = 1

                         Standard orientation:
 ---------------------------------------------------------------------
 Center     Atomic      Atomic             Coordinates (Angstroms)
 Number     Number       Type             X           Y           Z
 ---------------------------------------------------------------------
      1         26           0        0.000000    0.000000    0.004293
      2          6           0       -0.000000    1.901938   -0.001310
      3          6           0        0.000000   -1.901938   -0.001310
      4          8           0       -0.000000    3.492275   -0.005995
      5          8           0        0.000000   -3.492275   -0.005995
 ---------------------------------------------------------------------

 SCF Done:  E(RPBE-PBE) =  -1488.23732839     A.U. after   33 cycles
 SCF Done:  E(RPBE-PBE) =  -1488.29142333     a.u. after   30 cycles

 Unable to determine electronic state:  an orbital has unidentified symmetry.
 Alpha  occ. eigenvalues -- -255.29787 -30.12223 -26.08387 -26.07178 -26.06856
 Alpha  occ. eigenvalues --  -19.33875 -19.33874 -10.54863 -10.54855  -3.83727
 Alpha  occ. eigenvalues --   -2.66702  -2.64892  -2.64177  -1.30731  -1.30720
 Alpha  occ. eigenvalues --   -1.01152  -0.97589  -0.84716  -0.80366  -0.78645
 Alpha  occ. eigenvalues --   -0.78490  -0.75191  -0.74880  -0.73891  -0.73053
 Alpha  occ. eigenvalues --   -0.72798
 Alpha virt. eigenvalues --   -0.73944  -0.71357  -0.63296  -0.63094  -0.59691
 Alpha virt. eigenvalues --   -0.59514  -0.50549  -0.43821  -0.36792  -0.36716
 Alpha virt. eigenvalues --   -0.34808  -0.21890  -0.11664   0.02064   0.02112

 Mulliken charges:
               1
     1  Fe   0.880964
     2  C    0.412495
     3  C    0.412495
     4  O    0.147023
     5  O    0.147023
 Sum of Mulliken charges =   2.00000

 Dipole moment (field-independent basis, Debye):
    X=             -0.0000    Y=             -0.0000    Z=              0.0138  Tot=              0.0138
 Quadrupole moment (field-independent basis, Debye-Ang):
   XX=            -28.5970   YY=              3.0461   ZZ=            -28.1906
   XY=              0.0186   XZ=             -0.0000   YZ=              0.0000

 1\1\GINC-PHOENIX\SP\RPBEPBE\SVP\C2Fe1O2(2+)\MGIMFERRER\31-Jan-2019\0\\
 #p pbepbe/SVP pop=full scf=xqc 6d 10f gfinput iop(3/33=1)\\dsfdsf\\2,1
 \Fe,0,0.,0.,0.\C,0,1.337845834,-1.35186503,-0.005225752\C,0,-1.3448787
 76,1.344878776,0.\O,0,2.456508277,-2.482249861,-0.009595353\O,0,-2.469
 421932,2.469421932,0.\\Version=ES64L-G16RevA.03\State=1-A1\HF=-1488.29
 14233\RMSD=1.387e-12\Dipole=0.0034016,0.003379,0.0025275\Quadrupole=3.
 8715106,4.0054535,-7.876964,-11.6445212,0.0742733,0.1020906\PG=C02V [C
 2(Fe1),SGV(C2O2)]\\@

 Normal termination of Gaussian 16 at Thu Jan 31 12:38:54 2019.
