 Gaussian 16, Revision A.03,
 Gaussian 16:  ES64L-G16RevA.03 25-Dec-2016

 --------------------------------------------------
 #p ub3lyp/cc-pvtz pop=full opt gfinput iop(3/33=1)
 --------------------------------------------------

 ------
 dsfdsf
 ------
 Symbolic Z-matrix:
 Charge =  0 Multiplicity = 3

 SCF Done:  E(UB3LYP) =  -76.1814809695     A.U. after   11 cycles
 SCF Done:  E(UB3LYP) =  -76.2104681374     A.U. after   11 cycles
 SCF Done:  E(UB3LYP) =  -76.2177793117     A.U. after   12 cycles
 SCF Done:  E(UB3LYP) =  -76.2204191546     A.U. after   11 cycles
 SCF Done:  E(UB3LYP) =  -76.2210377721     A.U. after   10 cycles
 SCF Done:  E(UB3LYP) =  -76.2226429442     A.U. after   10 cycles
 SCF Done:  E(UB3LYP) =  -76.2240643598     A.U. after   12 cycles
 SCF Done:  E(UB3LYP) =  -76.2241069416     A.U. after    8 cycles
 SCF Done:  E(UB3LYP) =  -76.2241105888     A.U. after    8 cycles
 SCF Done:  E(UB3LYP) =  -76.2241107967     A.U. after    7 cycles
 Optimization completed.
    -- Stationary point found.

                         Standard orientation:
 ---------------------------------------------------------------------
 Center     Atomic      Atomic             Coordinates (Angstroms)
 Number     Number       Type             X           Y           Z
 ---------------------------------------------------------------------
      1          8           0       -0.000000    0.000000    0.048334
      2          1           0       -0.000000    1.174694   -0.193337
      3          1           0       -0.000000   -1.174694   -0.193337
 ---------------------------------------------------------------------

 The electronic state is 3-B1.
 Alpha  occ. eigenvalues --  -19.26543  -1.04911  -0.57280  -0.46924  -0.40530
 Alpha  occ. eigenvalues --   -0.17560
 Alpha virt. eigenvalues --   -0.00378   0.20031   0.32822   0.47159   0.49584
 Alpha virt. eigenvalues --    0.52273   0.54114   0.80288   0.80642   0.82399
 Alpha virt. eigenvalues --    0.90102   1.04282   1.19815   1.39557   1.40430

  Beta  occ. eigenvalues --  -19.23441  -0.96235  -0.52928  -0.36912
  Beta virt. eigenvalues --   -0.21179  -0.04911   0.04603   0.24182   0.38033
  Beta virt. eigenvalues --    0.51930   0.55086   0.55155   0.58449   0.82795
  Beta virt. eigenvalues --    0.83386   0.86736   0.95181   1.08794   1.24348

 Mulliken charges and spin densities:
               1          2
     1  O   -0.045576   0.934712
     2  H    0.022788   0.532644
     3  H    0.022788   0.532644
 Sum of Mulliken charges =   0.00000   2.00000

 Dipole moment (field-independent basis, Debye):
    X=              0.0000    Y=              0.0000    Z=             -0.2314  Tot=              0.2314
 Quadrupole moment (field-independent basis, Debye-Ang):
   XX=             -7.2429   YY=             -7.5306   ZZ=             -8.3723
   XY=             -0.0000   XZ=             -0.0000   YZ=              0.0000

 Normal termination of Gaussian 16 at Thu Feb  7 03:21:10 2019.
