 Gaussian 16, Revision A.03,
 Gaussian 16:  ES64L-G16RevA.03 25-Dec-2016

 ------------------------------------------------------
 #p HF/cc-pvtz pop=full field=z+016 gfinput iop(3/33=1)
 ------------------------------------------------------

 ------
 dsfdsf
 ------
 Symbolic Z-matrix:
 Charge =  0 Multiplicity = 1

                         Standard orientation:
 ---------------------------------------------------------------------
 Center     Atomic      Atomic             Coordinates (Angstroms)
 Number     Number       Type             X           Y           Z
 ---------------------------------------------------------------------
      1          8           0       -0.000000    0.000000    0.114447
      2          1           0       -0.000000    0.745752   -0.457789
      3          1           0       -0.000000   -0.745752   -0.457789
 ---------------------------------------------------------------------

 SCF Done:  E(RHF) =  -76.0590102345     A.U. after   10 cycles

 The electronic state is 1-A1.
 Alpha  occ. eigenvalues --  -20.55101  -1.35405  -0.72001  -0.58013  -0.50558
 Alpha virt. eigenvalues --    0.14579   0.20736   0.55211   0.61178   0.66489
 Alpha virt. eigenvalues --    0.78712   0.80562   0.80687   0.86480   0.96025
 Alpha virt. eigenvalues --    1.11913   1.20665   1.54522   1.59345   2.02869

 Mulliken charges:
               1
     1  O   -0.479870
     2  H    0.239935
     3  H    0.239935
 Sum of Mulliken charges =   0.00000

 Dipole moment (field-independent basis, Debye):
    X=             -0.0000    Y=             -0.0000    Z=             -2.0298  Tot=              2.0298
 Quadrupole moment (field-independent basis, Debye-Ang):
   XX=             -7.2592   YY=             -4.1680   ZZ=             -6.0584
   XY=              0.0000   XZ=              0.0000   YZ=             -0.0000

 Normal termination of Gaussian 16 at Thu Jan 31 14:41:41 2019.
