 Gaussian 16, Revision A.03,
 Gaussian 16:  ES64L-G16RevA.03 25-Dec-2016

 --------------------------------------------------------------------
 #p pbepbe/gen pop=full scf=xqc 5d 7f gfinput pseudo=read iop(3/33=3)
 --------------------------------------------------------------------

 ------
 dsfdsf
 ------
 Symbolic Z-matrix:
 Charge =  2 Multiplicity = 1

                         Standard orientation:
 ---------------------------------------------------------------------
 Center     Atomic      Atomic             Coordinates (Angstroms)
 Number     Number       Type             X           Y           Z
 ---------------------------------------------------------------------
      1         44           0       -0.000000    0.000000    0.003220
      2          6           0       -0.000000    1.901938   -0.002383
      3          6           0        0.000000   -1.901938   -0.002383
      4          8           0       -0.000000    3.492275   -0.007068
      5          8           0        0.000000   -3.492275   -0.007068
 ---------------------------------------------------------------------

 SCF Done:  E(RPBE-PBE) =  -319.772120922     A.U. after   33 cycles
 SCF Done:  E(RPBE-PBE) =  -319.877176505     a.u. after   42 cycles

 The electronic state is 1-A1.
 Alpha  occ. eigenvalues --  -19.30999 -19.30990 -10.52301 -10.52298  -3.45630
 Alpha  occ. eigenvalues --   -2.34325  -2.32971  -2.32952  -1.30030  -1.29996
 Alpha  occ. eigenvalues --   -1.03968  -0.96627  -0.85396  -0.81004  -0.80896
 Alpha  occ. eigenvalues --   -0.79281  -0.74736  -0.74557  -0.74380  -0.72358
 Alpha  occ. eigenvalues --   -0.71971
 Alpha virt. eigenvalues --   -0.74798  -0.69255  -0.63044  -0.62765  -0.56603
 Alpha virt. eigenvalues --   -0.56406  -0.49089  -0.42409  -0.38000  -0.37917
 Alpha virt. eigenvalues --   -0.30558  -0.27184  -0.22710  -0.22467  -0.20663

 Mulliken charges:
               1
     1  Ru   0.933016
     2  C    0.420538
     3  C    0.420538
     4  O    0.112954
     5  O    0.112954
 Sum of Mulliken charges =   2.00000

 Dipole moment (field-independent basis, Debye):
    X=              0.0000    Y=              0.0000    Z=             -0.2298  Tot=              0.2298
 Quadrupole moment (field-independent basis, Debye-Ang):
   XX=            -33.8377   YY=             -5.4677   ZZ=            -34.4676
   XY=             -0.0000   XZ=             -0.0000   YZ=             -0.0000

 1\1\GINC-PHOENIX\SP\RPBEPBE\Gen\C2O2Ru1(2+)\MGIMFERRER\31-Jan-2019\0\\
 #p pbepbe/gen pop=full scf=xqc 5d 7f gfinput pseudo=read iop(3/33=3)\\
 dsfdsf\\2,1\Ru,0,0.,0.,0.\C,0,1.337845834,-1.35186503,-0.005225752\C,0
 ,-1.344878776,1.344878776,0.\O,0,2.456508277,-2.482249861,-0.009595353
 \O,0,-2.469421932,2.469421932,0.\\Version=ES64L-G16RevA.03\State=1-A1\
 HF=-319.8771765\RMSD=6.562e-13\Dipole=-0.056747,-0.0563703,-0.0421653\
 Quadrupole=3.432068,3.544444,-6.976512,-10.7292793,-0.1574876,-0.11559
 87\PG=C02V [C2(Ru1),SGV(C2O2)]\\@

 Normal termination of Gaussian 16 at Thu Jan 31 13:01:49 2019.
